# vtk DataFile Version 4.2
written by meshio v4.0.16
ASCII
DATASET UNSTRUCTURED_GRID
POINTS 4504 double
1624.2867431640625 -864.383056640625 -5.111586093902588 1624.6856689453125 -860.4064331054688 -4.665986061096191 1622.496826171875 -862.4805297851562 -8.251362800598145 1627.704345703125 -861.9554443359375 -7.01173210144043 1623.9273681640625 -868.3426513671875 -5.620110034942627 1627.362548828125 -866.8677368164062 -7.589754104614258 1622.198974609375 -866.2606201171875 -8.590727806091309 1627.544921875 -864.6114501953125 -7.34351110458374 1629.734619140625 -864.5859985351562 -10.606605529785156 1630.5936279296875 -860.79296875 -14.16843032836914 1629.9326171875 -859.4043579101562 -10.087514877319336 1629.620361328125 -868.4483032226562 -10.98465633392334 1630.69482421875 -864.3923950195312 -14.432608604431152 1630.775390625 -866.4893188476562 -14.603311538696289 1630.41064453125 -861.8922119140625 -18.194168090820312 1630.6707763671875 -864.1777954101562 -18.3863525390625 1631.078125 -867.447509765625 -18.577011108398438 1630.181640625 -864.0198364257812 -22.31778335571289 1631.146240234375 -868.8203125 -22.53070831298828 1629.4569091796875 -860.036865234375 -21.904254913330078 1630.332275390625 -866.6127319335938 -26.359783172607422 1629.6697998046875 -863.9281005859375 -26.2492618560791 1629.147216796875 -861.7210693359375 -26.023067474365234 1629.36376953125 -863.8831787109375 -30.201778411865234 1628.71044921875 -861.6676635742188 -34.055599212646484 1628.41748046875 -860.1224365234375 -29.87677574157715 1630.4952392578125 -868.3265991210938 -30.341552734375 1629.754638671875 -866.3507080078125 -34.21010971069336 1629.2034912109375 -863.8794555664062 -34.16368865966797 1628.873046875 -863.9386596679688 -38.114646911621094 1629.5465087890625 -867.9737548828125 -38.112178802490234 1625.7723388671875 -866.4752807617188 -38.11309051513672 1628.1888427734375 -859.9388427734375 -38.117088317871094 1625.158447265625 -862.50634765625 -38.115516662597656 1627.9561767578125 -858.308837890625 -33.7762451171875 1627.49462890625 -855.9407958984375 -38.11953353881836 1624.5313720703125 -858.5481567382812 -38.11793518066406 1623.8939208984375 -854.5901489257812 -38.12035369873047 1626.7940673828125 -851.9439086914062 -38.12197494506836 1626.6854248046875 -852.6318969726562 -33.52408218383789 1627.285888671875 -855.4276733398438 -32.85691452026367 1623.2509765625 -850.6170654296875 -38.12278366088867 1625.90966796875 -849.0067138671875 -33.57453536987305 1626.0953369140625 -847.9465942382812 -38.124420166015625 1622.6165771484375 -846.6107177734375 -38.12522888183594 1625.140869140625 -845.2056884765625 -33.53886032104492 1625.4312744140625 -843.943359375 -38.12686538696289 1624.4691162109375 -841.3873291015625 -33.536582946777344 1622.0384521484375 -842.5516357421875 -38.12771224975586 1624.8668212890625 -839.92529296875 -38.12932205200195 1623.9566650390625 -837.5196533203125 -33.570274353027344 1621.5736083984375 -838.4562377929688 -38.13021469116211 1624.4774169921875 -835.88623046875 -38.13179016113281 1623.6766357421875 -833.5202026367188 -33.657798767089844 1621.29345703125 -834.3302001953125 -38.13273620605469 1624.34716796875 -831.8318481445312 -38.13426971435547 1621.2081298828125 -830.1587524414062 -38.13528823852539 1624.5732421875 -827.7819213867188 -38.13674545288086 1623.7415771484375 -829.4306030273438 -33.83999252319336 1621.0758056640625 -825.634765625 -38.13805389404297 1624.2388916015625 -825.3123779296875 -34.0809326171875 1625.20458984375 -823.7752075195312 -38.13919448852539 1626.21337890625 -819.8466796875 -38.1416015625 1625.142333984375 -821.2544555664062 -34.28794479370117 1622.335693359375 -821.26953125 -38.140724182128906 1627.536376953125 -816.0115356445312 -38.14394760131836 1626.3453369140625 -817.3528442382812 -34.33293914794922 1623.413330078125 -817.3568115234375 -38.14311981201172 1624.508056640625 -813.5269775390625 -38.14546203613281 1629.1097412109375 -812.2713012695312 -38.146236419677734 1627.7745361328125 -813.6138916015625 -34.25139617919922 1625.2315673828125 -809.7206420898438 -38.147789001464844 1628.0997314453125 -808.4738159179688 -38.148555755615234 1629.4263916015625 -809.9827270507812 -34.23848342895508 1630.8746337890625 -808.6181030273438 -38.14847183227539 1629.333984375 -805.4554443359375 -38.15040588378906 1632.779541015625 -805.034912109375 -38.150665283203125 1631.29541015625 -806.3892211914062 -34.306427001953125 1633.3211669921875 -802.8464965820312 -34.37455368041992 1630.9783935546875 -801.8949584960938 -38.152584075927734 1634.7762451171875 -801.5023193359375 -38.152828216552734 1632.784423828125 -798.1423950195312 -38.15488052368164 1636.82666015625 -798.0006103515625 -38.154972076416016 1635.4512939453125 -799.3641967773438 -34.418155670166016 1637.6505126953125 -795.9304809570312 -34.4403190612793 1634.8165283203125 -794.3399047851562 -38.15720748901367 1638.888427734375 -794.5055541992188 -38.15711212158203 1639.8807373046875 -792.4976196289062 -34.48957443237305 1636.956298828125 -790.6581420898438 -38.159461975097656 1640.921142578125 -790.9935913085938 -38.159263610839844 1638.883544921875 -787.3648681640625 -38.161827087402344 1642.111083984375 -788.99658203125 -34.702056884765625 1642.907470703125 -787.5252685546875 -38.16160583496094 1644.7730712890625 -783.9907836914062 -38.154808044433594 1644.3541259765625 -785.2437744140625 -35.440521240234375 1640.6876220703125 -783.9793090820312 -38.15648651123047 1642.3626708984375 -780.5062255859375 -38.129642486572266 1646.48828125 -780.3810424804688 -38.12357711791992 1643.932861328125 -776.9605712890625 -38.0662727355957 1645.396728515625 -782.9948120117188 -32.31985855102539 1648.030029296875 -776.6946411132812 -38.05134582519531 1647.51904296875 -779.0894165039062 -33.143550872802734 1649.27490234375 -775.2788696289062 -33.33806228637695 1645.3843994140625 -773.3871459960938 -37.95177459716797 1649.3795166015625 -772.9351806640625 -37.920196533203125 1650.7305908203125 -771.476318359375 -33.295555114746094 1650.5257568359375 -769.1124877929688 -37.71045684814453 1646.661865234375 -769.8944702148438 -37.77708053588867 1647.5430908203125 -766.3872680664062 -37.528114318847656 1651.4686279296875 -765.24072265625 -37.40703582763672 1651.9119873046875 -767.6041259765625 -33.10392379760742 1648.1334228515625 -762.654052734375 -37.187313079833984 1652.218505859375 -761.3341674804688 -37.02193069458008 1652.8304443359375 -763.6549072265625 -32.78432846069336 1648.7236328125 -758.7698974609375 -36.766300201416016 1652.794189453125 -757.405029296875 -36.57070541381836 1653.52001953125 -759.63720703125 -32.37325668334961 1654.01513671875 -755.5618286132812 -31.89129638671875 1653.2169189453125 -753.4653930664062 -36.04781723022461 1649.2789306640625 -754.8853759765625 -36.28018569946289 1654.33056640625 -751.5929565429688 -31.349674224853516 1649.7257080078125 -751.0641479492188 -35.72868728637695 1653.4984130859375 -749.52490234375 -35.442596435546875 1649.9918212890625 -747.307373046875 -35.1060791015625 1653.6488037109375 -745.592529296875 -34.74470520019531 1654.5042724609375 -747.7070922851562 -30.719690322875977 1650.0447998046875 -743.5775146484375 -34.4005126953125 1653.6796875 -741.6756591796875 -33.950042724609375 1654.5596923828125 -743.884521484375 -30.00564956665039 1654.51416015625 -740.1124877929688 -29.23444938659668 1653.602783203125 -737.7782592773438 -33.067806243896484 1649.93212890625 -739.8143310546875 -33.60112762451172 1649.7374267578125 -736.0011596679688 -32.70820617675781 1654.380615234375 -736.386962890625 -28.43158531188965 1653.43359375 -733.9019775390625 -32.10861587524414 1649.505859375 -732.16259765625 -31.732402801513672 1653.178466796875 -730.0474243164062 -31.082855224609375 1654.16259765625 -732.6931762695312 -27.568065643310547 1652.8350830078125 -726.2158813476562 -29.998796463012695 1653.851806640625 -728.952392578125 -26.576658248901367 1649.238037109375 -728.333251953125 -30.689971923828125 1652.397216796875 -722.4093017578125 -28.861793518066406 1653.4417724609375 -725.1768798828125 -25.441232681274414 1648.9197998046875 -724.544189453125 -29.59564208984375 1652.9193115234375 -721.3104248046875 -24.23197364807129 1648.523681640625 -720.8221435546875 -28.46344566345215 1651.861328125 -718.6299438476562 -27.6769962310791 1651.2254638671875 -714.8798828125 -26.44942283630371 1652.28466796875 -717.402587890625 -23.03137969970703 1648.00390625 -717.1743774414062 -27.302963256835938 1647.326904296875 -713.579833984375 -26.113719940185547 1651.5479736328125 -713.5465087890625 -21.856416702270508 1650.486572265625 -711.162109375 -25.182086944580078 1646.515380859375 -709.9976806640625 -24.882537841796875 1649.6402587890625 -707.480712890625 -23.876136779785156 1650.696044921875 -709.7356567382812 -20.66641616821289 1649.693115234375 -705.89111328125 -19.459672927856445 1645.6099853515625 -706.4246826171875 -23.60599708557129 1648.6826171875 -703.8402099609375 -22.533111572265625 1644.629638671875 -702.8934936523438 -22.294788360595703 1648.5010986328125 -701.8939819335938 -18.339187622070312 1647.5897216796875 -700.2503051757812 -21.157835006713867 1646.302001953125 -696.7332153320312 -19.76418113708496 1647.0809326171875 -697.576171875 -17.610397338867188 1643.5335693359375 -699.4681396484375 -20.976470947265625 1644.7784423828125 -693.3123779296875 -18.369304656982422 1642.227783203125 -696.1920166015625 -19.67769432067871 1645.0050048828125 -694.7357177734375 -14.079272270202637 1643.0079345703125 -690.0064697265625 -16.988466262817383 1640.6448974609375 -693.04052734375 -18.3985652923584 1640.9910888671875 -686.8323364257812 -15.636234283447266 1642.514404296875 -690.3666381835938 -12.095396995544434 1638.830322265625 -689.970458984375 -17.125417709350586 1638.726806640625 -683.8107299804688 -14.32927131652832 1640.1768798828125 -686.681396484375 -10.641205787658691 1636.830810546875 -687.0215454101562 -15.8794527053833 1636.21240234375 -680.9654541015625 -13.085501670837
[...]
CELL_DATA 9004
FIELD FieldData 1
facet_normals 3 9004 double
-0.8606140290625768 0.02936496426085786 0.5084104560831108 0.5585845932829808 -0.14749820924424475 0.8162276216942354 0.5407034759347801 -0.15525420448386146 0.8267622893565781 -0.8603927646563253 0.012658815629418372 0.5094742828778559 0.553399435349837 -0.13586853700696136 0.8217595789560774 -0.8625753659492101 0.022591051274585435 0.505423963084355 0.5535779067927619 -0.13444144252589688 0.8218740777287602 0.8249386574844157 -0.1185511279554304 0.5526498361967596 0.8241156412325429 -0.12685918459452802 0.5520327500790927 0.9824752244506322 -0.05537151116734208 0.17797873213315424 0.8122541896160086 -0.08057641940014451 0.577711495547642 0.9697665784955734 0.00936696600143719 0.24385455333234396 0.8393071808949324 -0.0858507692972552 0.536836196161614 0.9594859335650306 -0.05542438411123792 0.27625148132947913 0.9695668851177037 0.01737175269665891 0.24420949508853962 0.9980211583191346 0.03203026353231544 -0.05410942399788905 0.9935863031503832 0.11307629864359463 9.421793417874468e-05 0.9992423501109258 0.03871582189065651 -0.003976289743592134 0.9846162506387656 0.129505568739354 -0.11729938893087227 0.9855174805809437 0.12206362357771007 -0.11771052318492327 0.9915880343263386 0.12082827888549605 0.04640794331142849 0.9786156871762055 0.19895771169436405 -0.05222227273860651 0.9693369356383778 0.1922667365635054 -0.15303400673843373 0.9627412500488727 0.2424988103542712 -0.11968129524322943 0.9754494376353435 0.20008584269249224 -0.09200027266767855 0.9632627468292806 0.2403602687791483 -0.11979908915899569 0.969603903103516 0.19215364667381496 -0.15147688654175043 0.9688579805712473 0.23681947520206215 -0.07232392168864021 0.9676496045318006 0.24175424877673676 -0.07217427552698755 0.9690440665854226 0.24581791152719268 -0.022959777612087173 0.9663716238280116 0.24819257934945724 -0.06727799206185829 0.9650862328157404 0.24968001513031896 -0.07917356423735354 0.9669795345177922 0.24806863773949017 -0.058416870797977354 0.974883295458017 0.21923356456261692 -0.03923269562604618 0.975112458903918 0.21821018556647384 -0.03924292809411418 0.9716609729245317 0.2207310689276053 -0.08457392568297518 0.9721847893707007 0.21840893229614874 -0.08458293923423688 0.9792195187956584 0.16335932679220985 -0.12017846878536621 -1.3748496080587863e-06 -0.0006118900413009314 -0.9999998127943261 0.9842099885982527 0.16832441613240415 -0.0547502445392954 -1.2978239974333863e-06 -0.0006106013939587017 -0.9999998135821093 -1.6602119305801058e-06 -0.0006115412210103008 -0.9999998130072719 0.9746816760409477 0.22144979194256356 -0.030913104641954008 0.9851942595424041 0.17106041867859356 -0.011428216229946412 -1.0790912004047452e-06 -0.0006117911285696319 -0.9999998128552078 -8.346022783675445e-07 -0.0006111481288458833 -0.9999998132486166 -1.520818458557749e-06 -0.0006112891072124222 -0.9999998131616398 0.9837933392468827 0.1724660919845836 0.049052143368390574 -1.442223998460409e-06 -0.0006110795812574931 -0.9999998132898152 0.9750368486005004 0.2213845425018534 0.017088832975063195 0.9766640604012703 0.21402792403566542 0.017870670202522018 -8.381360459734705e-07 -0.0006117416310871956 -0.9999998128857196 0.9762559429881332 0.2096677325035886 0.05444057059909007 -8.865009455057214e-07 -0.000611870780605129 -0.9999998128066635 0.9818927418637409 0.1716838077998583 0.08007067886965044 -2.025752805233396e-06 -0.0006106573462046558 -0.9999998135467335 0.9767023654564858 0.19674437238431014 0.08569796524310919 -2.226652874226008e-06 -0.0006111805104616027 -0.9999998132266953 0.9808589637983544 0.1627716078418931 0.10686953175242879 0.9789817893326922 0.17216422654088087 0.10933496812337985 -1.2647172297406099e-06 -0.0006115823395536284 -0.9999998129827037 0.9819947772647948 0.13802829820784757 0.1289745956322856 -1.440275501467795e-06 -0.0006120103252378862 -0.9999998127206262 0.9831699948706624 0.13137191893196148 0.12695739483053414 -1.5996883907929295e-06 -0.0006112140120059879 -0.9999998132074188 0.9846463417618007 0.09501881494433843 0.146434307666192 -1.6019753218725177e-06 -0.0006112191386671475 -0.9999998132042818 0.9877125016892428 0.07218995438701852 0.1386096118325772 -1.781166099284662e-06 -0.0006116307135599129 -0.9999998129523314 0.9866403907570895 0.03179402480514102 0.1597807225962736 -1.5854064417104924e-06 -0.0006112301489370335 -0.9999998131975784 -1.3138065249495332e-06 -0.0006112310649463728 -0.9999998131974122 0.9840167365349023 -0.05482601877733687 0.16942600120473814 -1.6271534189425743e-06 -0.0006118189616613512 -0.9999998128374378 0.989430324191159 -0.009264776452188999 0.1447128103806609 -1.2178093135515218e-06 -0.0006113669775413218 -0.9999998131144504 0.9828451164016212 -0.11002788561213261 0.14801804468782584 -1.035319153756142e-06 -0.0006110697249975517 -0.9999998132963422 0.9728514514825382 -0.15318853789601203 0.17347427822475792 0.9535503722361466 -0.24475032894608628 0.1756102619128191 -1.5874661962059027e-06 -0.00061230878529736 -0.9999998125376982 -8.549840410686351e-07 -0.0006114701236079251 -0.999999813051761 0.9664593882343321 -0.2074456450284518 0.15140196581435214 0.9302984009233425 -0.3208134445115615 0.17783030973402525 -1.327030166275465e-06 -0.0006112632786366486 -0.9999998131777041 -1.7829602969224397e-06 -0.0006117760070490752 -0.9999998128634515 0.9443015001186009 -0.28935347488386526 0.15674579243600875 -1.4676705527531508e-06 -0.0006113276661418354 -0.9999998131381479 0.906846416680343 -0.38136355567684815 0.17941966156342293 -1.3520163204422766e-06 -0.0006111867002576315 -0.9999998132244773 0.9204684425698538 -0.3553911601316778 0.16258834378050577 -1.5444266678541902e-06 -0.0006110463776393244 -0.9999998133099522 -1.6400880157004327e-06 -0.0006111918267845078 -0.999999813220913 0.8972825356797514 -0.4087761626398399 0.16669163152828909 -1.5350986146455384e-06 -0.0006111639029689914 -0.9999998132381461 0.8859589806638778 -0.42790525094918824 0.17881213826565268 -6.11590576316229e-07 -0.0006118249192067122 -0.9999998128349297 0.8697219472162518 -0.4622584650900457 0.17291861086351065 0.8760692334045854 -0.45250314173082423 0.1665641168008154 -1.5943630140964578e-06 -0.0006123036642624842 -0.9999998125408227 0.8583010232685988 -0.48771506364628525 0.15954112369096635 -6.554711373807153e-07 -0.0006114653917032664 -0.9999998130548051 -1.0447102610588647e-06 -0.0006116886678668689 -0.9999998129179236 0.8596345412867218 -0.4857886759485109 0.15823342803263793 -1.199116351948644e-06 -0.0006115301944748843 -0.9999998130146741 0.8554194546295223 -0.5008073845188641 0.13209663225345802 0.8451808553698514 -0.5152176829759487 0.1421972603997034 -1.0690645982176802e-06 -0.0006114530975731954 -0.9999998130619657 0.8370522821850567 -0.5353858456680445 0.11271855724369996 -1.2067254709239832e-06 -0.0006113132609696947 -0.9999998131473029 0.8576979521739541 -0.5059081984412852 0.09171214525077133 -1.4535528613948272e-06 -0.0006114487964288016 -0.9999998130641108 0.8369357949102707 -0.5427172822460867 0.07068540690506603 -1.4553449518374136e-06 -0.0006114928485583868 -0.9999998130371717 -1.7162147841396393e-06 -0.0006116238545281643 -0.9999998129566401 0.8647990428649039 -0.5005188702257166 0.04004342652568977 -1.0223959901732873e-05 -0.0007121811519001754 -0.9999997463467065 0.8437723843715295 -0.5363505782884647 0.01939640537866303 2.7438485478905128e-05 -0.0006910329765849104 -0.9999997608602488 0.8677035692123036 -0.49694659342506514 -0.011601692094343082 0.8816875368261412 -0.46522818167156293 -0.07867544969063195 0.0004156252222425107 0.0017038945269647974 -0.9999984619983752 0.00011541267216379322 0.0015159554185325875 -0.9999988442788743 0.8561989474110888 -0.5161595251502317 -0.02242112951728476 0.0012252780777512694 0.008069353284418676 -0.9999666915608756 0.9018757547838369 -0.4280314472987395 -0.05838838117665927 0.0004319513464313654 0.007520614874801791 -0.9999716264824413 0.0009403647327968166 0.017453342461810715 -0.999847236607213 0.9132519707937005 -0.40722894040122853 -0.011637351121053982 0.0024372047238339495 0.01857124568869088 -0.9998245690453422 0.9193689467342756 -0.3827201947926655 -0.09102742596917078 0.872451563730042 -0.4856382789155173 -0.054623538854405226 0.9003821710169451 -0.420576887234893 -0.11147658067334425 0.0016050877278503213 0.031373757906056156 -0.999506433700273 0.004122811057342731 0.03338547859087248 -0.9994340459721411 0.9325559124735969 -0.3296095874352044 -0.14729898160317048 0.9226635134325466 -0.35143909301086174 -0.15869027974016453 0.943298193934217 -0.27244453219823295 -0.1896377973815625 0.0023398433329758907 0.04910097895572309 -0.9987910787540939 0.006525856333498833 0.05283241328979735 -0.9985820693889363 0.008538696982804385 0.07605836789766068 -0.9970668058493272 0.9523849368409594 -0.21498606774514975 -0.2162034290984293 0.941233307477073 -0.27764980489182023 -0.19232900649487084 0.0030227459917054177 0.07005290951181765 -0.9975386974326353 0.004365242828081055 0.09022544982702012 -0.9959117997385931 0.009161284704795979 0.09635780065734437 -0.9953045991630085 0.9602602277269131 -0.16191444138920041 -0.2273411725039704 0.955677585847787 -0.20517111243426744 -0.21115199864228365 0.005712057976214583 0.10690151692703534 -0.9942532062167942 0.9666759040676036 -0.11539020716900736 -0.22852307670030797 0.009973450975026447 0.11264285373863914 -0.9935854858930178 0.9653716865121816 -0.14339275546711575 -0.2179358267017473 0.9717545907042011 -0.0923763581997751 -0.2171626668906448 0.971694192056869 -0.0745094979479406 -0.22418459322284964 0.011497123111282951 0.13035007745195476 -0.991401368502401 0.006348594564264924 0.1232767917688679 -0.9923520181660507 0.9760629089578506 -0.04864531527315138 -0.21197837403545278 0.007198058586071223 0.14201670309939346 -0.9898380897870976 0.9755511484254218 -0.036401102741380524 -0.2167369754450124 0.013406527525750589 0.1508606979669325 -0.9884641191407157 0.015636349200742233 0.17414158814213349 -0.9845964715877302 0.978101025994409 -0.00046918521389472404 -0.20813015834789464 0.008346101931010364 0.16291817036154002 -0.9866042835648978 0.9788342638361632 -0.010621608338450226 -0.2043787302451531 0.017492120928770657 0.1986683227810973 -0.9799106710454576 0.9792315646677161 0.032868137623240826 -0.20006306077733607 0.010002856442734073 0.18572421895504942 -0.9825509947867962 0.980241779080721 0.022497430519090613 -0.1965195159893832 0.9804106811052035 0.05074486906952943 -0.19031514558213003 0.9789178657267812 0.06327760296565728 -0.19420545080878798 0.012311438723390187 0.2081232050518287 -0.9780251325991142 0.019030604068664934 0.2210967602579744 -0.9750661817088159 0.01458023804604951 0.22868143486767148 -0.9733921193462496 0.9794705497344036 0.07539961229780826 -0.18695545102597422 0.9774670609418129 0.08992138077623293 -0.19097719773069827 0.02053059443816994 0.2409999246445155 -0.970307956791736 0.021953076646265366 0.2584610673518104 -0.9657721983413718 0.9756620185820047 0.11436626215784972 -0.18709351559188261 0.9777956479524031 0.1006784462464196 -0.18379205996654688 0.016714926866318106 0.24728714671123178 -0.9687980585711716 0.9741117125429655 0.13796838641422246 -0.17908404685193716 0.9758717880100907 0.12796465556676867 -0.17691608262582212 0.023384776082325223 0.27410878501837743 -0.9614143363936948 0.018616533297996077 0.2638297725546641 -0.9643895871491556 0.972743893783118 0.16157329048957636 -0.16632314603815399 0.024723098022945013 0.2887221221795802 -0.9570936759733957 0.020258155995915916 0.2789853426554758 -0.9600816557455162 0.9739569860494686 0.15542102897438725 -0.16508207982085057 0.9720402694979989 0.17891228614631824 -0.15207928307351912 0.025910386936111505 0.30237986543386597 -0.9528352789590749 0.9705292182624126 0.1857454097837641 -0.15353071107505487 0.021787772591357602 0.2930730056849244 -0.9558417789071116 0.9668358790618818 0.21102919583375268 -0.14385778207798794 0.02691649954065193 0.315109931221353 -0.9486734070786175 0.9693587824046928 0.20086957738731775 -0.14140354965534604 0.02321506296055132 0.306083932819128 -0.9517214334676471 0.024489694658161944 0.3181625284889021 -0.947719821635645 0.9652374067814231 0.2249571021349599 -0.13308287173379876 0.02788180830951074 0.32748873478201485 -0.9444436104692894 0.961702398943796 0.23767417699530238 -0.13652648627776764 0.028812717427427005 0.34006788481849387 -0.9399593932875626 0.9593263890317016 0.2533474340166287 -0.12453094789884982 0.9556662709199687 0.2651345293538595 -0.12808458131339748 0.02562057232746922 0.33011597470661974 -0.9435926184096141 0.952059313277975 0.28402938682100387 -0.11362381538548644 0.02674636835449381 0.3423293685763169 -0.9391992521238429 0.02976798271206418 0.35284063911558666 -0.9352097896160831 0.9490529829231352 0.2927063415165199 -0.11671089598111067 0.027915131679815092 0.35476488126584277 -0.9345387228166263 0.9448662675075282 0.31073460476552284 -0.10330412347823509 0.9379152087933 0.3283587701879295 -0.11178362650625949 0.030727454332831947 0.36571717404628107 -0.9302186690009107 0.9015770226009227 0.3976315140242342 -0.17043488895425962 0.03155452951033389 0.378165501491219 -0.9252000676336315 0.9381400472807745 0.327524582587297 -0.11234277675508496 0.02923251254765487 0.3671664341393592 -0.9296957942529045 0.8813113922457626 0.45057381902352545 -0.14238491320498473 0.032221242723492444 0.38965121439697725 -0.9203986759205571 0.03069835383408422 0.37890991243272865 -0.9249242614031158 0.8651520750894173 0.4878682508399308 0.11617425184119713 0.8937545705786589 0.43771462904990666 0.09802382917158202 0.03279774872650346 0.4001161647746436 -0.9158773729951535 0.03214513768657537 0.38970876339075944 -0.9203769716043292 0.8605205207730662 0.4942988439386644 0.1231790818660015 0.03341668183699821 0.4096099457648331 -0.9116485165377801 0.8851115265461501 0.4490143733458073 0.12232611374524993 0.033475224683410625 0.3996680540907128 -0.9160485008293711 0.8183092652269995 0.5628729455690585 0.11637866466865822 0.03405094218760968 0.41814950273640916 -0.9077397901917871 0.8594072255884078 0.49574961191619 0.1251061265141827 0.034719387428145454 0.40885141959715826 -0.9119402835876935 0.7635765699818917 0.6411050950453842 0.07703946314414543 0.03460732011999088 0.4258172439600674 -0.9041471164253995 0.035905418356881505 0.41722522806635026 -0.9080935579540246 0.8322854206973266 0.5457024020987028 0.09751854612523608 0.037017380599109945 0.4248390720105633 -0.9045117337142642 0.0350903572384995 0.4325782798166635 -0.900913258121852 0.6922321555686328 0.7216201115514359 0.00889142290622371 0.7890840096884714 0.6126592182881624 0.04466663072700313 0.7072650722102741 0.7068875895475147 -0.009276495841646316 0.037970725115666605 0.4316784448728591 -0.9012280201293902 0.03552904408310681 0.4384541343074728 -0.8980510337031105 0.6101999724579936 0.7904847828899613 -0.05281857279096614 0.6112124618683584 0.7896292286605208 -0.053898123360756264 0.03871228564946683 0.43772601476767353 -0.8982746211128334 0.523555906883566 0.8464231042833176 -0.09724783238056599 0.03601748704947629 0.44347526766030854 -0.8955626318690718 0.03658184466235169 0.44765209466087286 -0.8934592160735891 0.5047639564294581 0.8596112494982463 -0.07925811015753408 0.039244243605485785 0.442962638040786 -0.8956807414719716 0.435246933085704 0.8924664016415264 -0.1185910164410208 0.39188655799974026 0.9163039069148015 -0.08253530051915337 0.34588099084933444 0.9316718494206769 -0.11114812263883744 0.03716646678791191 0.4508715799876982 -0.8918147072715833 0.03958213694506629 0.4473926517368062 -0.8934612860145487 0.03946408953449825 0.4509393776202918 -0.8916817051777147 0.2820504988141278 0.9572986406626968 -0.06345729827257643 0.037697026599964885 0.452833197331456 -0.8907979734934807 0.25129842046753176 0.9641636243676183 -0.0850741401180284 0.17775997650621603 0.9833605681600346 -0.037461763712932986 0.03898516161698153 0.45304707155618634 -0.8906337676778607 0.03828194848577122 0.45361743743259847 -0.8903739174510984 0.14922474102040717 0.9870072732163951 -0.0595702886120986 0.042941465445528335 0.9982271129860868 -0.04121482069417434 0.03890592215301125 0.45351645530301327 -0.8903983119878507 0.038620733346628244 0.45370690728415647 -0.8903136982201355 0.07264295947808624 0.9972375719718067 -0.015499209206943755 0.03815240550827968 0.4532463745992472 -0.8905684240228656 -0.034776958875658605 0.9993894638296453 -0.0033559972668033705 0.03942097677816874 0.4525569608965815 -0.890863729048335 -0.0635873087627854 0.9975090159010079 -0.030535509828866495 0.03723319755166353 0.45142817587460593 -0.8915303085294434 -0.14059470866358362 0.9900654384378956 0.0018856050963990598 -0.166208286584269 0.9857776180589732 -0.024845385984092 0.03969522121300071 0.45048440184782385 -0.8919013920297799 0.036297513914989345 0.44800331323388304 -0.8932947564018578 -0.24149016690837682 0.9704026886519075 0.0010588407404166402 0.03974444519626437 0.4471716211103703 -0.8935647264465874 -0.2617608934630428 0.9648894484245297 -0.021669955524556885 -0.33547705197853017 0.942048182448575 -0.0006078989479197387 0.03952124981310545 0.44288172591034863 -0.895708572956562 -0.3491689918806726 0.9368988593216405 -0.017364979436889756 0.035668872768833314 0.4434453330406655 -0.8955914069037587 0.03898838264008191 0.43773722647586144 -0.8982572162673289 -0.42232377726912496 0.9064433562087554 -0.0017518955864519448 -0.4285887978873751 0.9034430173627109 -0.010117149006284748 0.03506877392312522 0.4380062651870546 -0.8982876447733299 -0.5013754790206576 0.8652270641430347 0.0021809427390343185 0.03820247768171728 0.43181798969178253 -0.9011513715672442 -0.5026550771805768 0.864487057312307 -3.352755094966809e-05 0.03448226952852893 0.4317809412761523 -0.9013191398382937 -0.5168959772270015 0.8436109202344259 -0.14539313597198542 0.037276200883649815 0.425145610614272 -0.9043570614658237 0.033909536515454496 0.4248535123682601 -0.904626793966252 -0.44794750505828124 0.8940311244585083 0.007168068883345052 0.036281505614734276 0.4179165777514949 -0.9077606437772057 -0.5770890379284874 0.8098927831339782 -0.10508055067552605 0.033338248288755014 0.4174861334884233 -0.9080715222634855 -0.5895222012418025 0.7981495236769672 -0.12418096511643716 0.03275516009916914 0.40991169853412773 -0.9115368883878174 0.03521078627562301 0.4103962423676915 -0.911227262970293 -0.6239598252003373 0.7768555529638275 -0.0846734100248152 -0.6244424392017406 0.7763927944403012 -0.08535730118133306 -0.6643627237199369 0.7440515443939116 -0.07077761380875958 0.0341438787604962 0.4024673795999629 -0.9147973567414414 0.03212730139874186 0.40194497269353835 -0.91510003575086 -0.6635373544123246 0.7448965782677076 -0.06962231671349371 -0.701496410017292 0.7098100450153446 -0.06381603817353315 0.03311338287326343 0.39386795136749553 -0.9185703787735923 0.03145489665057788 0.3933322448827742 -0.9188581689315163 -0.6982203082156795 0.7134268854395783 -0.05924930655445986 0.03209934472302018 0.3845594782355823 -0.9225419447198753 -0.7344438141485594 0.6753793568602879 -0.06674584770530889 0.030706720237863742 0.3840424164096869 -0.9228047029195517 -0.7268285966647472 0.6845361513940902 -0.05595041112379302 0.031036464007092014 0.3745762803069622 -0.9266765067343278 -0.7605646589620776 0.6446802707008205 -0.07699836431389524 -0.7506634359783108 0.6577493957131141 -0.0622104358148193 0.029910720105687943 0.374122748310656 -0.9268967137816599 -0.7708722555804101 0.6326016149950375 -0.07464021893082375 -0.7799405619342867 0.619512838091632 -0.08886260906185628 0.02989835072252399 0.36397961890501496 -0.9309269174569146 0.0291187539806981 0.36364514580044965 -0.9310823304640581 -0.793381089750099 0.6006736207515475 -0.09867952046991017 -0.7867760532212402 0.6109861434351579 -0.08763204098867551 0.028393709279512114 0.35274901537177744 -0.9352870839627756 0.02872085994313327 0.3529004948771587 -0.9352199489529635 -0.7853960383544927 0.6109174739905289 -0.09966394990215868 0.027680797131090125 0.3414743962005163 -0.9394833740996592 0.02755